                       DFT Final Molecular Orbital Analysis
                       ------------------------------------

 Vector    1  Occ=1.000000D+00  E=-7.869885D+00

 Vector  267  Occ=0.000000D+00  E= 1.030826D+01

 Vector  268  Occ=0.000000D+00  E= 1.031435D+01

 Vector  269  Occ=0.000000D+00  E= 1.032810D+01

 Vector  270  Occ=0.000000D+00  E= 1.032902D+01

 Vector  271  Occ=0.000000D+00  E= 1.032945D+01

 Vector  272  Occ=0.000000D+00  E= 1.032981D+01

 Vector  273  Occ=0.000000D+00  E= 1.033053D+01

 Vector  274  Occ=0.000000D+00  E= 1.033214D+01

 Vector  275  Occ=0.000000D+00  E= 1.033631D+01

 Vector  276  Occ=0.000000D+00  E= 1.034251D+01

 Vector  277  Occ=0.000000D+00  E= 1.581218D+01

 Vector  278  Occ=0.000000D+00  E= 1.581691D+01

 Vector  279  Occ=0.000000D+00  E= 1.622750D+01

 Vector  280  Occ=0.000000D+00  E= 1.622938D+01

 Vector  281  Occ=0.000000D+00  E= 1.622962D+01

 Vector  282  Occ=0.000000D+00  E= 1.623660D+01

 Vector  283  Occ=0.000000D+00  E= 1.659218D+01

 Vector  284  Occ=0.000000D+00  E= 1.659225D+01

 Vector  285  Occ=0.000000D+00  E= 1.659239D+01

 Vector  286  Occ=0.000000D+00  E= 1.659384D+01

 Vector  287  Occ=0.000000D+00  E= 1.659757D+01

 Vector  288  Occ=0.000000D+00  E= 1.660444D+01

 Vector  289  Occ=0.000000D+00  E= 1.796357D+01

 Vector  290  Occ=0.000000D+00  E= 1.796512D+01

 Vector  291  Occ=0.000000D+00  E= 1.796683D+01

 Vector  292  Occ=0.000000D+00  E= 1.797560D+01

 Vector  293  Occ=0.000000D+00  E= 1.894411D+01

 Vector  294  Occ=0.000000D+00  E= 1.895426D+01

 Vector  295  Occ=0.000000D+00  E= 2.859636D+01

 Vector  296  Occ=0.000000D+00  E= 2.859643D+01

 Vector  297  Occ=0.000000D+00  E= 2.859681D+01

 Vector  298  Occ=0.000000D+00  E= 2.859704D+01

 Vector  299  Occ=0.000000D+00  E= 2.859831D+01

 Vector  300  Occ=0.000000D+00  E= 2.860047D+01

 Vector  301  Occ=0.000000D+00  E= 2.860385D+01

 Vector  302  Occ=0.000000D+00  E= 2.860894D+01

 Vector  303  Occ=0.000000D+00  E= 2.862326D+01

 Vector  304  Occ=0.000000D+00  E= 2.862344D+01

 Vector  305  Occ=0.000000D+00  E= 2.862409D+01

 Vector  306  Occ=0.000000D+00  E= 2.862494D+01

 Vector  307  Occ=0.000000D+00  E= 2.862799D+01

 Vector  308  Occ=0.000000D+00  E= 2.863271D+01

 Vector  309  Occ=0.000000D+00  E= 4.432450D+01

 Vector  310  Occ=0.000000D+00  E= 4.432526D+01

 Vector  311  Occ=0.000000D+00  E= 4.432596D+01

 Vector  312  Occ=0.000000D+00  E= 4.433029D+01

 Vector  313  Occ=0.000000D+00  E= 4.496852D+01

 Vector  314  Occ=0.000000D+00  E= 4.496871D+01

 Vector  315  Occ=0.000000D+00  E= 4.496897D+01

 Vector  316  Occ=0.000000D+00  E= 4.496995D+01

 Vector  317  Occ=0.000000D+00  E= 4.497231D+01

 Vector  318  Occ=0.000000D+00  E= 4.497667D+01

 Vector  319  Occ=0.000000D+00  E= 5.178250D+01

 Vector  320  Occ=0.000000D+00  E= 5.178507D+01

 Vector  321  Occ=0.000000D+00  E= 5.744653D+01

 Vector  322  Occ=0.000000D+00  E= 5.744715D+01

 Vector  323  Occ=0.000000D+00  E= 5.744801D+01

 Vector  324  Occ=0.000000D+00  E= 5.745271D+01

 Vector  325  Occ=0.000000D+00  E= 6.085227D+01

 Vector  326  Occ=0.000000D+00  E= 6.085753D+01

 Vector  327  Occ=0.000000D+00  E= 1.466625D+02

 Vector  328  Occ=0.000000D+00  E= 1.466625D+02

 Vector  329  Occ=0.000000D+00  E= 1.466634D+02

 Vector  330  Occ=0.000000D+00  E= 1.466656D+02

 Vector  331  Occ=0.000000D+00  E= 1.476605D+02

 Vector  332  Occ=0.000000D+00  E= 1.476608D+02

 Vector  333  Occ=0.000000D+00  E= 1.476612D+02

 Vector  334  Occ=0.000000D+00  E= 1.476619D+02

 Vector  335  Occ=0.000000D+00  E= 1.476631D+02

 Vector  336  Occ=0.000000D+00  E= 1.476654D+02

 Vector  337  Occ=0.000000D+00  E= 2.088132D+02

 Vector  338  Occ=0.000000D+00  E= 2.088175D+02

 Vector  339  Occ=0.000000D+00  E= 2.657793D+02

 Vector  340  Occ=0.000000D+00  E= 2.657811D+02

 Vector  341  Occ=0.000000D+00  E= 2.782152D+02

 Vector  342  Occ=0.000000D+00  E= 2.782162D+02

 Vector  343  Occ=0.000000D+00  E= 2.782170D+02

 Vector  344  Occ=0.000000D+00  E= 2.782195D+02

 Vector  345  Occ=0.000000D+00  E= 2.180768D+03

 Vector  346  Occ=0.000000D+00  E= 2.180770D+03

         Total DFT energy =   -262.051534271934
         Total DFT energy =   -262.051534271934

 Output coordinates in angstroms (scale by  1.889725989 to convert to a.u.)

  No.       Tag          Charge          X              Y              Z
 ---- ---------------- ---------- -------------- -------------- --------------
    1 At                  85.0000     0.00000000     0.00000000     0.00000000

         Total DFT energy =   -262.051534271934
 Total times  cpu:        5.8s     wall:       13.9s
